# Probe 0 (5.5 -0.5 0)
# Probe 1 (5.5 0.5 0)
#       Probe             0             1
#        Time
        0.005     -0.537815     -0.537815
         0.01     0.0496432     0.0496433
        0.015    -0.0157113    -0.0157113
         0.02     -0.010935     -0.010935
        0.025   -0.00852613   -0.00852615
         0.03   -0.00678061   -0.00678063
        0.035   -0.00547552   -0.00547552
         0.04   -0.00448559    -0.0044856
        0.045    -0.0037181   -0.00371812
         0.05   -0.00311108    -0.0031111
        0.055    -0.0026223   -0.00262231
         0.06   -0.00222286   -0.00222286
        0.065   -0.00189094   -0.00189094
         0.07   -0.00161241   -0.00161242
        0.075   -0.00137658   -0.00137659
         0.08   -0.00117372   -0.00117373
        0.085  -0.000997064  -0.000997073
         0.09  -0.000842599  -0.000842611
        0.095  -0.000706669  -0.000706677
          0.1  -0.000586033  -0.000586042
        0.105   -0.00047798  -0.000477989
         0.11  -0.000380603  -0.000380615
        0.115  -0.000294003  -0.000294014
         0.12  -0.000214554   -0.00021456
        0.125  -0.000141871  -0.000141878
         0.13   -7.5407e-05  -7.54144e-05
        0.135  -1.43816e-05  -1.43946e-05
         0.14   4.18031e-05   4.17964e-05
        0.145   9.36762e-05   9.36722e-05
         0.15   0.000141707   0.000141699
        0.155   0.000186376    0.00018637
         0.16    0.00022787   0.000227865
        0.165   0.000266534   0.000266529
         0.17   0.000302571   0.000302566
        0.175   0.000336251   0.000336245
         0.18   0.000368054   0.000368049
        0.185    0.00039791   0.000397904
         0.19   0.000425983   0.000425978
        0.195    0.00045244   0.000452435
          0.2   0.000477408   0.000477402
        0.205    0.00050094   0.000500932
         0.21   0.000523221   0.000523218
        0.215   0.000544834    0.00054483
         0.22   0.000564872   0.000564869
        0.225   0.000584045   0.000584039
         0.23   0.000602643   0.000602638
        0.235   0.000620075   0.000620069
         0.24   0.000636668   0.000636662
        0.245   0.000652301   0.000652294
         0.25   0.000667294   0.000667288
        0.255   0.000682055   0.000682044
         0.26   0.000695806   0.000695801
        0.265   0.000709114   0.000709106
         0.27    0.00072185   0.000721844
        0.275   0.000734017   0.000734011
         0.28   0.000745768   0.000745761
        0.285   0.000756972   0.000756965
         0.29   0.000767687    0.00076768
        0.295   0.000777892   0.000777884
          0.3   0.000787802   0.000787796
        0.305   0.000797521   0.000797515
         0.31    0.00080655   0.000806543
        0.315   0.000815287   0.000815281
         0.32   0.000823594   0.000823588
        0.325   0.000831309   0.000831304
         0.33   0.000839223   0.000839216
        0.335    0.00084782   0.000847812
         0.34   0.000855223   0.000855216
        0.345   0.000862245   0.000862238
         0.35   0.000869014   0.000869008
        0.355   0.000875555   0.000875548
         0.36   0.000881873   0.000881866
        0.365   0.000887969   0.000887962
         0.37   0.000893764   0.000893757
        0.375   0.000899395   0.000899388
         0.38   0.000904834   0.000904826
        0.385   0.000909961   0.000909955
         0.39   0.000915269   0.000915263
        0.395   0.000920232   0.000920224
          0.4   0.000924999   0.000924992
        0.405    0.00093025   0.000930243
         0.41   0.000934744   0.000934736
        0.415   0.000939378    0.00093937
         0.42    0.00094398   0.000943973
        0.425   0.000948264   0.000948258
         0.43   0.000952303   0.000952296
        0.435   0.000956246   0.000956238
         0.44   0.000960176   0.000960169
        0.445   0.000964156   0.000964149
         0.45   0.000967834   0.000967826
        0.455   0.000971433   0.000971427
         0.46   0.000975099   0.000975093
        0.465   0.000978618    0.00097861
         0.47   0.000982072   0.000982065
        0.475   0.000985563   0.000985556
         0.48   0.000988855   0.000988847
        0.485   0.000992083   0.000992075
         0.49   0.000995315   0.000995308
        0.495   0.000998497   0.000998489
          0.5    0.00100151     0.0010015
        0.505     0.0010044    0.00100439
         0.51    0.00100733    0.00100732
        0.515    0.00101034    0.00101033
         0.52    0.00101334    0.00101333
        0.525    0.00101619    0.00101618
         0.53    0.00101896    0.00101895
        0.535     0.0010216    0.00102159
         0.54    0.00102412    0.00102412
        0.545    0.00102697    0.00102697
         0.55    0.00102966    0.00102966
        0.555    0.00103221     0.0010322
         0.56    0.00103608    0.00103607
        0.565    0.00103882    0.00103882
         0.57    0.00104145    0.00104144
        0.575    0.00104401      0.001044
         0.58    0.00104647    0.00104646
        0.585    0.00104868    0.00104867
         0.59    0.00105148    0.00105147
        0.595    0.00105421     0.0010542
          0.6    0.00105672    0.00105671
        0.605    0.00105917    0.00105916
         0.61    0.00106169    0.00106168
        0.615    0.00106415    0.00106414
         0.62    0.00106674    0.00106673
        0.625    0.00106936    0.00106935
         0.63    0.00107181    0.00107181
        0.635    0.00107434    0.00107434
         0.64    0.00107679    0.00107678
        0.645    0.00107943    0.00107942
         0.65    0.00108196    0.00108195
        0.655    0.00108453    0.00108452
         0.66    0.00108704    0.00108703
        0.665    0.00108943    0.00108942
         0.67     0.0010925    0.00109249
        0.675    0.00109497    0.00109496
         0.68    0.00109728    0.00109727
        0.685    0.00109986    0.00109986
         0.69     0.0011025    0.00110249
        0.695    0.00110507    0.00110507
          0.7    0.00110776    0.00110775
        0.705    0.00111038    0.00111037
         0.71    0.00111298    0.00111297
        0.715    0.00111565    0.00111564
         0.72    0.00111816    0.00111816
        0.725    0.00112062     0.0011206
         0.73    0.00112308    0.00112307
        0.735     0.0011258    0.00112579
         0.74    0.00112839    0.00112838
        0.745    0.00113124    0.00113123
         0.75    0.00113352     0.0011335
        0.755    0.00113762     0.0011376
         0.76    0.00114085    0.00114084
        0.765    0.00114345    0.00114344
         0.77    0.00114613    0.00114612
        0.775    0.00114886    0.00114885
         0.78    0.00115159    0.00115158
        0.785    0.00115464    0.00115463
         0.79    0.00115753    0.00115752
        0.795    0.00116036    0.00116035
          0.8    0.00116315    0.00116314
        0.805    0.00116619    0.00116619
         0.81    0.00116942    0.00116941
        0.815    0.00117252    0.00117252
         0.82    0.00117563    0.00117563
        0.825    0.00117868    0.00117867
         0.83    0.00118177    0.00118176
        0.835    0.00118484    0.00118484
         0.84    0.00118795    0.00118795
        0.845    0.00119101      0.001191
         0.85    0.00119398    0.00119397
        0.855    0.00119705    0.00119704
         0.86    0.00120016    0.00120016
        0.865    0.00120333    0.00120332
         0.87    0.00120657    0.00120656
        0.875    0.00120965    0.00120964
         0.88    0.00121289    0.00121289
        0.885    0.00121645    0.00121644
         0.89    0.00122008    0.00122007
        0.895    0.00122385    0.00122385
          0.9    0.00122719    0.00122719
        0.905    0.00123047    0.00123047
         0.91    0.00123385    0.00123385
        0.915    0.00123712    0.00123711
         0.92    0.00123976    0.00123977
        0.925    0.00124391    0.00124389
         0.93    0.00124901      0.001249
        0.935    0.00125242    0.00125241
         0.94     0.0012559    0.00125589
        0.945     0.0012594    0.00125939
         0.95    0.00126293    0.00126292
        0.955    0.00126655    0.00126655
         0.96    0.00127045    0.00127044
        0.965    0.00127431     0.0012743
         0.97    0.00127804    0.00127803
        0.975    0.00128176    0.00128175
         0.98    0.00128561     0.0012856
        0.985    0.00128976    0.00128975
         0.99    0.00129351     0.0012935
        0.995    0.00129733    0.00129733
            1    0.00130116    0.00130116
        1.005    0.00130545    0.00130544
         1.01    0.00130983    0.00130982
        1.015    0.00131383    0.00131382
         1.02    0.00131776    0.00131775
        1.025    0.00132195    0.00132194
         1.03    0.00132619    0.00132618
        1.035    0.00133031     0.0013303
         1.04     0.0013346    0.00133459
        1.045    0.00133882    0.00133881
         1.05    0.00134306    0.00134305
        1.055     0.0013473    0.00134729
         1.06    0.00135153    0.00135152
        1.065    0.00135561     0.0013556
         1.07    0.00135974    0.00135973
        1.075    0.00136352    0.00136351
         1.08    0.00136969    0.00136967
        1.085    0.00137468    0.00137467
         1.09     0.0013794     0.0013794
        1.095    0.00138388    0.00138388
          1.1    0.00138826    0.00138826
        1.105    0.00139268    0.00139268
         1.11    0.00139719    0.00139719
        1.115    0.00140169    0.00140169
         1.12    0.00140668    0.00140667
        1.125    0.00141164    0.00141164
         1.13    0.00141641     0.0014164
        1.135    0.00142099    0.00142098
         1.14    0.00142567    0.00142567
        1.145    0.00143063    0.00143063
         1.15    0.00143564    0.00143563
        1.155    0.00144075    0.00144075
         1.16    0.00144528    0.00144526
        1.165    0.00145128    0.00145127
         1.17    0.00145614    0.00145612
        1.175    0.00146016    0.00146017
         1.18    0.00146587    0.00146587
        1.185    0.00147096    0.00147095
         1.19    0.00147603    0.00147602
        1.195    0.00148114    0.00148114
          1.2    0.00148635    0.00148635
        1.205    0.00149145    0.00149145
         1.21    0.00149605    0.00149605
        1.215    0.00150083    0.00150082
         1.22    0.00150817    0.00150816
        1.225    0.00151384    0.00151383
         1.23    0.00151956    0.00151956
        1.235    0.00152498    0.00152497
         1.24    0.00153029    0.00153029
        1.245    0.00153562    0.00153562
         1.25     0.0015411    0.00154109
        1.255    0.00154646    0.00154646
         1.26    0.00155203    0.00155202
        1.265    0.00155789    0.00155788
         1.27    0.00156353    0.00156352
        1.275    0.00156916    0.00156915
         1.28    0.00157474    0.00157474
        1.285    0.00158044    0.00158043
         1.29    0.00158609    0.00158608
        1.295    0.00159186    0.00159186
          1.3    0.00159794    0.00159793
        1.305    0.00160389    0.00160388
         1.31    0.00160971     0.0016097
        1.315    0.00161539    0.00161538
         1.32    0.00162143    0.00162143
        1.325    0.00162765    0.00162764
         1.33    0.00163351     0.0016335
        1.335    0.00163907    0.00163907
         1.34    0.00164427    0.00164426
        1.345    0.00165268    0.00165265
         1.35    0.00166001    0.00166001
        1.355    0.00166577    0.00166577
         1.36    0.00167165    0.00167164
        1.365    0.00167771     0.0016777
         1.37    0.00168406    0.00168405
        1.375    0.00169025    0.00169024
         1.38    0.00169661     0.0016966
        1.385    0.00170305    0.00170304
         1.39    0.00170942     0.0017094
        1.395    0.00171583    0.00171581
          1.4    0.00172223    0.00172222
        1.405    0.00172852     0.0017285
         1.41    0.00173506    0.00173505
        1.415    0.00174184    0.00174183
         1.42    0.00174864    0.00174863
        1.425    0.00175529    0.00175529
         1.43    0.00176217    0.00176216
        1.435    0.00176882     0.0017688
         1.44    0.00177539    0.00177537
        1.445     0.0017819    0.00178189
         1.45    0.00178814    0.00178813
        1.455    0.00179307     0.0017931
         1.46    0.00180158    0.00180154
        1.465    0.00181113     0.0018111
         1.47    0.00181787    0.00181785
        1.475    0.00182461    0.00182459
         1.48    0.00183137    0.00183135
        1.485    0.00183824    0.00183823
         1.49     0.0018453     0.0018453
        1.495    0.00185248    0.00185246
          1.5    0.00185976    0.00185975
        1.505    0.00186693    0.00186691
         1.51    0.00187414    0.00187413
        1.515    0.00188134    0.00188132
         1.52    0.00188861     0.0018886
        1.525    0.00189594    0.00189593
         1.53     0.0019032    0.00190318
        1.535    0.00191041    0.00191039
         1.54     0.0019177    0.00191769
        1.545    0.00192499    0.00192497
         1.55    0.00193228    0.00193226
        1.555     0.0019391    0.00193909
         1.56    0.00194541    0.00194541
        1.565    0.00195112    0.00195109
         1.57    0.00196151    0.00196145
        1.575    0.00197094    0.00197094
         1.58    0.00197876    0.00197875
        1.585    0.00198648    0.00198646
         1.59    0.00199414    0.00199413
        1.595    0.00200191     0.0020019
          1.6    0.00200966    0.00200964
        1.605    0.00201761    0.00201759
         1.61    0.00202568    0.00202566
        1.615    0.00203365    0.00203363
         1.62     0.0020416    0.00204158
        1.625     0.0020496    0.00204959
         1.63     0.0020577    0.00205768
        1.635    0.00206581    0.00206578
         1.64    0.00207399    0.00207397
        1.645    0.00208213    0.00208212
         1.65    0.00209059    0.00209058
        1.655    0.00209932    0.00209929
         1.66    0.00210865     0.0021086
        1.665      0.002119    0.00211899
         1.67    0.00212513    0.00212519
        1.675    0.00213121    0.00213118
         1.68    0.00213927    0.00213923
        1.685    0.00214747    0.00214746
         1.69    0.00215589    0.00215588
        1.695    0.00216444    0.00216441
          1.7    0.00217282     0.0021728
        1.705    0.00218117    0.00218116
         1.71    0.00218956    0.00218953
        1.715    0.00219801      0.002198
         1.72    0.00220662    0.00220661
        1.725    0.00221497    0.00221495
         1.73    0.00222368    0.00222366
        1.735    0.00223243    0.00223241
         1.74    0.00224118    0.00224116
        1.745    0.00225015    0.00225013
         1.75    0.00225935    0.00225932
        1.755    0.00226926    0.00226921
         1.76    0.00227874    0.00227874
        1.765    0.00228505    0.00228506
         1.77    0.00229344    0.00229343
        1.775    0.00230296    0.00230293
         1.78    0.00231263    0.00231263
        1.785     0.0023228    0.00232278
         1.79    0.00233411    0.00233409
        1.795    0.00234737    0.00234735
          1.8    0.00235313     0.0023531
        1.805    0.00235804    0.00235802
         1.81    0.00236421    0.00236419
        1.815    0.00237367    0.00237364
         1.82    0.00238038    0.00238035
        1.825    0.00238784    0.00238782
         1.83    0.00240013    0.00240011
        1.835     0.0024068    0.00240676
         1.84    0.00241417    0.00241414
        1.845    0.00242665    0.00242667
         1.85    0.00243654    0.00243652
        1.855    0.00244119    0.00244117
         1.86    0.00244821    0.00244818
        1.865    0.00245915    0.00245912
         1.87    0.00247049    0.00247046
        1.875    0.00248139    0.00248137
         1.88    0.00248861    0.00248858
        1.885    0.00249524    0.00249521
         1.89     0.0025058    0.00250578
        1.895    0.00251637    0.00251638
          1.9    0.00252739    0.00252735
        1.905    0.00253775    0.00253773
         1.91    0.00254514    0.00254511
        1.915    0.00255182    0.00255179
         1.92    0.00256246    0.00256243
        1.925    0.00257376    0.00257372
         1.93    0.00258438    0.00258439
        1.935    0.00259297      0.002593
         1.94    0.00260372    0.00260373
        1.945    0.00261056     0.0026105
         1.95    0.00261826    0.00261824
        1.955    0.00262743    0.00262741
         1.96    0.00263771    0.00263768
        1.965    0.00264807    0.00264806
         1.97    0.00265854    0.00265851
        1.975    0.00266916    0.00266913
         1.98    0.00268011    0.00268008
        1.985    0.00269077    0.00269075
         1.99    0.00269838    0.00269836
        1.995    0.00270608    0.00270604
            2    0.00271586    0.00271582
        2.005    0.00272719     0.0027272
         2.01    0.00273602      0.002736
        2.015    0.00274441    0.00274439
         2.02    0.00275519    0.00275516
        2.025    0.00276601    0.00276597
         2.03    0.00277694    0.00277693
        2.035    0.00278823    0.00278822
         2.04    0.00279711    0.00279708
        2.045    0.00280603    0.00280599
         2.05    0.00281311     0.0028131
        2.055    0.00282302    0.00282301
         2.06    0.00283371    0.00283367
        2.065    0.00284442     0.0028444
         2.07    0.00285514    0.00285511
        2.075    0.00286649    0.00286641
         2.08    0.00287657    0.00287658
        2.085    0.00288527    0.00288528
         2.09     0.0028957    0.00289564
        2.095    0.00290663    0.00290663
          2.1    0.00291802    0.00291801
        2.105    0.00292566    0.00292563
         2.11    0.00293581    0.00293579
        2.115     0.0029434    0.00294337
         2.12    0.00295392     0.0029539
        2.125    0.00296479    0.00296474
         2.13    0.00297559    0.00297556
        2.135    0.00298631     0.0029863
         2.14    0.00299715    0.00299713
        2.145    0.00300855    0.00300856
         2.15    0.00301796    0.00301793
        2.155    0.00302692     0.0030269
         2.16    0.00303782     0.0030378
        2.165     0.0030488    0.00304877
         2.17    0.00305994     0.0030599
        2.175    0.00307125    0.00307124
         2.18       0.00308    0.00307999
        2.185    0.00308975    0.00308972
         2.19     0.0030994    0.00309937
        2.195    0.00310797    0.00310794
          2.2    0.00311925    0.00311921
        2.205    0.00313071    0.00313066
         2.21    0.00314192    0.00314193
        2.215    0.00315128    0.00315132
         2.22     0.0031609    0.00316086
        2.225     0.0031719    0.00317188
         2.23    0.00318283    0.00318279
        2.235    0.00319375    0.00319372
         2.24    0.00320469    0.00320465
        2.245    0.00321564    0.00321562
         2.25    0.00322643    0.00322643
        2.255    0.00323739    0.00323735
         2.26    0.00324865    0.00324861
        2.265    0.00326046    0.00326041
         2.27    0.00327095    0.00327095
        2.275    0.00327872    0.00327877
         2.28    0.00328855    0.00328851
        2.285    0.00329767    0.00329764
         2.29    0.00330783     0.0033078
        2.295    0.00331909    0.00331906
          2.3    0.00333033     0.0033303
        2.305    0.00334166    0.00334164
         2.31    0.00335265    0.00335263
        2.315    0.00336338    0.00336335
         2.32    0.00337455    0.00337451
        2.325    0.00338585    0.00338584
         2.33    0.00339579    0.00339576
        2.335    0.00340498    0.00340498
         2.34    0.00341533    0.00341532
        2.345    0.00342415    0.00342412
         2.35    0.00343455    0.00343452
        2.355    0.00345231    0.00345228
         2.36    0.00346094    0.00346092
        2.365    0.00347681    0.00347681
         2.37    0.00348633    0.00348629
        2.375    0.00349713    0.00349705
         2.38    0.00351182    0.00351185
        2.385    0.00351849    0.00351851
         2.39    0.00352582    0.00352581
        2.395    0.00354114    0.00354112
          2.4    0.00354946    0.00354942
        2.405    0.00355972    0.00355971
         2.41    0.00357019    0.00357017
        2.415    0.00357977    0.00357973
         2.42    0.00359536    0.00359531
        2.425    0.00360663    0.00360664
         2.43    0.00361646    0.00361645
        2.435     0.0036262    0.00362618
         2.44    0.00363678    0.00363676
        2.445    0.00364708    0.00364709
         2.45    0.00366159    0.00366155
        2.455    0.00367252    0.00367248
         2.46    0.00368372    0.00368369
        2.465    0.00369495    0.00369491
         2.47    0.00370659    0.00370653
        2.475    0.00371684    0.00371688
         2.48    0.00372617    0.00372613
        2.485    0.00374007    0.00374009
         2.49    0.00375135     0.0037513
        2.495    0.00376277    0.00376275
          2.5    0.00377428    0.00377426
        2.505    0.00378592    0.00378587
         2.51    0.00379776    0.00379772
        2.515    0.00380976    0.00380976
         2.52    0.00382014    0.00382016
        2.525    0.00383052    0.00383052
         2.53    0.00384198    0.00384195
        2.535    0.00385338    0.00385334
         2.54    0.00386379    0.00386377
        2.545    0.00387418    0.00387415
         2.55    0.00388634     0.0038863
        2.555     0.0038985    0.00389849
         2.56    0.00390975    0.00390973
        2.565    0.00392068    0.00392066
         2.57    0.00393257    0.00393255
        2.575    0.00394453    0.00394451
         2.58    0.00395651    0.00395648
        2.585     0.0039685    0.00396846
         2.59    0.00398081    0.00398074
        2.595     0.0039923    0.00399232
          2.6    0.00400332    0.00400333
        2.605    0.00401498    0.00401495
         2.61    0.00402697    0.00402694
        2.615    0.00403902      0.004039
         2.62    0.00405114     0.0040511
        2.625    0.00406365    0.00406357
         2.63    0.00407619    0.00407622
        2.635    0.00408578    0.00408579
         2.64    0.00409796    0.00409793
        2.645    0.00411005    0.00411002
         2.65     0.0041222    0.00412216
        2.655    0.00413455    0.00413452
         2.66    0.00414654    0.00414654
        2.665    0.00415799    0.00415803
         2.67     0.0041698    0.00416975
        2.675    0.00418207    0.00418203
         2.68    0.00419439    0.00419436
        2.685    0.00420689    0.00420684
         2.69    0.00421935    0.00421935
        2.695    0.00423169    0.00423172
          2.7    0.00424423    0.00424419
        2.705    0.00425303      0.004253
         2.71    0.00426548    0.00426543
        2.715    0.00427794    0.00427794
         2.72    0.00428875    0.00428875
        2.725    0.00429943    0.00429941
         2.73    0.00431204    0.00431202
        2.735    0.00432462    0.00432459
         2.74    0.00433735    0.00433728
        2.745    0.00434945    0.00434947
         2.75    0.00436152    0.00436153
        2.755    0.00437401    0.00437398
         2.76    0.00438656    0.00438652
        2.765    0.00439928    0.00439928
         2.77     0.0044115    0.00441148
        2.775    0.00442385    0.00442384
         2.78    0.00443737    0.00443735
        2.785    0.00444704    0.00444704
         2.79    0.00445916    0.00445913
        2.795     0.0044715    0.00447149
          2.8    0.00448411    0.00448408
        2.805    0.00449677    0.00449675
         2.81     0.0045092    0.00450918
        2.815    0.00452165    0.00452165
         2.82    0.00453421    0.00453417
        2.825    0.00454654    0.00454655
         2.83     0.0045589    0.00455889
        2.835    0.00457152    0.00457146
         2.84    0.00458413    0.00458412
        2.845    0.00459663    0.00459664
         2.85    0.00460936    0.00460929
        2.855    0.00462196    0.00462197
         2.86    0.00463466    0.00463463
        2.865    0.00464741    0.00464742
         2.87     0.0046603    0.00466032
        2.875     0.0046736    0.00467357
         2.88    0.00468403    0.00468403
        2.885    0.00469531    0.00469527
         2.89    0.00470851    0.00470851
        2.895    0.00472151    0.00472147
          2.9    0.00473439    0.00473437
        2.905    0.00474725    0.00474728
         2.91    0.00475997    0.00475994
        2.915    0.00477267    0.00477265
         2.92    0.00478565    0.00478562
        2.925    0.00479855    0.00479853
         2.93    0.00481159    0.00481157
        2.935    0.00482406    0.00482403
         2.94    0.00483609    0.00483607
        2.945    0.00484897    0.00484896
         2.95    0.00486161    0.00486159
        2.955    0.00487409    0.00487408
         2.96    0.00488591    0.00488589
        2.965    0.00490093    0.00490092
         2.97    0.00491313    0.00491309
        2.975    0.00492385    0.00492383
         2.98    0.00493909    0.00493906
        2.985    0.00495097    0.00495097
         2.99    0.00496162    0.00496162
        2.995    0.00497403      0.004974
            3    0.00498836    0.00498836
        3.005    0.00499908    0.00499905
         3.01    0.00501299    0.00501297
        3.015    0.00502636    0.00502637
         3.02    0.00504095    0.00504093
        3.025    0.00505221     0.0050522
         3.03    0.00506504    0.00506503
        3.035    0.00507846    0.00507843
         3.04    0.00509183    0.00509181
        3.045    0.00510543     0.0051054
         3.05     0.0051202     0.0051202
        3.055    0.00513071    0.00513072
         3.06    0.00514363    0.00514362
        3.065    0.00515705    0.00515702
         3.07    0.00517042     0.0051704
        3.075    0.00518382    0.00518378
         3.08    0.00519735    0.00519735
        3.085    0.00521136    0.00521136
         3.09    0.00522502      0.005225
        3.095    0.00523558    0.00523555
          3.1    0.00524894    0.00524892
        3.105    0.00526362    0.00526362
         3.11    0.00527696    0.00527698
        3.115    0.00529123    0.00529122
         3.12    0.00530296    0.00530292
        3.125    0.00531517    0.00531514
         3.13     0.0053303    0.00533031
        3.135    0.00534079    0.00534079
         3.14    0.00535366    0.00535363
        3.145    0.00536735    0.00536732
         3.15    0.00538222    0.00538218
        3.155    0.00539544    0.00539545
         3.16    0.00540814    0.00540814
        3.165     0.0054229    0.00542288
         3.17     0.0054368    0.00543676
        3.175    0.00545015    0.00545016
         3.18    0.00546416    0.00546417
        3.185    0.00547782     0.0054778
         3.19    0.00548922    0.00548921
        3.195    0.00550285    0.00550283
          3.2      0.005516    0.00551599
        3.205    0.00552987    0.00552982
         3.21    0.00554477    0.00554478
        3.215    0.00555829    0.00555829
         3.22    0.00557181    0.00557177
        3.225     0.0055848    0.00558481
         3.23    0.00559926    0.00559925
        3.235    0.00561432     0.0056143
         3.24    0.00562931    0.00562929
        3.245    0.00564113    0.00564109
         3.25    0.00565164    0.00565163
        3.255     0.0056664    0.00566639
         3.26    0.00568183    0.00568183
        3.265     0.0056962     0.0056962
         3.27    0.00570919    0.00570919
        3.275     0.0057209    0.00572086
         3.28    0.00573315    0.00573314
        3.285    0.00574724    0.00574727
         3.29    0.00576218    0.00576217
        3.295    0.00577543    0.00577539
          3.3    0.00578945    0.00578945
        3.305    0.00580364    0.00580364
         3.31    0.00581864    0.00581862
        3.315    0.00583018    0.00583016
         3.32    0.00584379    0.00584377
        3.325    0.00585802    0.00585801
         3.33    0.00587227    0.00587225
        3.335    0.00588559    0.00588558
         3.34    0.00589905    0.00589904
        3.345    0.00591403    0.00591402
         3.35    0.00592886    0.00592885
        3.355    0.00594294    0.00594292
         3.36    0.00595665    0.00595664
        3.365    0.00597047    0.00597045
         3.37     0.0059843    0.00598429
        3.375    0.00599869    0.00599869
         3.38    0.00601334    0.00601333
        3.385    0.00602933    0.00602931
         3.39    0.00604274    0.00604273
        3.395    0.00605342     0.0060534
          3.4    0.00606675    0.00606674
        3.405     0.0060811     0.0060811
         3.41    0.00609624    0.00609625
        3.415    0.00611158    0.00611156
         3.42    0.00612543    0.00612541
        3.425     0.0061393    0.00613928
         3.43    0.00615324    0.00615323
        3.435    0.00616696    0.00616696
         3.44    0.00618223    0.00618225
        3.445    0.00619693     0.0061969
         3.45    0.00621249    0.00621247
        3.455     0.0062261    0.00622608
         3.46     0.0062394    0.00623938
        3.465    0.00625327    0.00625327
         3.47    0.00626648    0.00626648
        3.475    0.00628288    0.00628286
         3.48    0.00629657    0.00629655
        3.485    0.00630889    0.00630887
         3.49    0.00632254    0.00632254
        3.495    0.00633729    0.00633729
          3.5    0.00635117    0.00635115
        3.505    0.00636691    0.00636689
         3.51    0.00638176    0.00638174
        3.515    0.00639775    0.00639775
         3.52    0.00641091    0.00641091
        3.525    0.00642583    0.00642582
         3.53    0.00643877    0.00643875
        3.535    0.00645438    0.00645437
         3.54    0.00646906    0.00646906
        3.545    0.00648452    0.00648449
         3.55    0.00649889    0.00649886
        3.555    0.00651356    0.00651357